# Manually generated NAMESPACE file

# Base classes
export(SourceNational)
export(SourceProvincial)
export(SourceMap)

# CEDS implementations
export(CEDSNational)
export(CEDSProvincial)
export(CEDSMap)

# EDGAR implementations
export(EDGARNational)
export(EDGARProvincial)
export(EDGARMap)

# Sector mappings
export(CEDS_NATIONAL_SECTOR_MAPPING)
export(CEDS_NATIONAL_SECTOR_GROUP_MAPPING)
export(CEDS_PROVINCIAL_SECTOR_MAPPING)
export(CEDS_PROVINCIAL_SECTOR_GROUP_MAPPING)
export(CEDS_MAP_SECTOR_MAPPING)
export(CEDS_MAP_SECTOR_GROUP_MAPPING)
export(EDGAR_NATIONAL_SECTOR_MAPPING)
export(EDGAR_NATIONAL_SECTOR_GROUP_MAPPING)
export(EDGAR_PROVINCIAL_SECTOR_MAPPING)
export(EDGAR_PROVINCIAL_SECTOR_GROUP_MAPPING)

# Pollutant constants
export(CEDS_POLLUTANTS)
export(EDGAR_POLLUTANTS)

# Sector utility functions
# (Removed - functions no longer exist in 00_sector_mappings.R)

# Region types
export(REGIONTYPE_NATIONAL)
export(REGIONTYPE_PROVINCIAL)
export(REGIONTYPES)

# Utility functions
export(iso3_to_country)
export(get_data_path)
export(get_project_root)
export(map_values)

# Imports
importFrom(R6, R6Class)
importFrom(dplyr, "%>%")
importFrom(tibble, tibble)
importFrom(sf, st_as_sf, st_buffer, st_union)
importFrom(terra, vect, rast, extract, crop, mask, cellSize, app, makeValid)
importFrom(ncdf4, nc_open, nc_close, ncatt_get)
importFrom(countrycode, countrycode)
importFrom(glue, glue)
importFrom(stringr, str_extract)
importFrom(tidyr, pivot_longer)
importFrom(purrr, map)
export(fix_ggplotly_facets)
